BEGIN_CFG
 Size
    20
 Supercell
         4.036802      0.000000      0.000000
         0.000000      5.408842      0.000000
         0.000000      0.000000      3.972576
 AtomData:  id type       cartes_x      cartes_y      cartes_z           fx          fy          fz
             1    2       0.000000      0.000000      3.471928     0.000000   -0.000000    5.689111
             2    2       0.000000      2.704421      1.485639     0.000000   -0.000000    5.689111
             3    2       2.018401      0.000000      1.185106     0.000000   -0.000000   -8.369107
             4    2       2.018401      2.704421      3.171394     0.000000   -0.000000   -8.369107
             5    2       1.436547      1.332996      1.720892    22.882172   26.095995   -6.638503
             6    2       2.600256      4.075846      1.720892   -22.882172  -26.095995   -6.638503
             7    2       1.436547      1.371425      3.707181    22.882172  -26.095995   -6.638503
             8    2       2.600256      4.037417      3.707181   -22.882172   26.095995   -6.638503
             9    2       0.565002      0.722256      2.264064   -13.871350   -9.716404    0.887564
            10    2       3.471800      4.686586      2.264064    13.871350    9.716404    0.887564
            11    2       0.565002      1.982165      0.277776   -13.871350    9.716404    0.887564
            12    2       3.471800      3.426677      0.277776    13.871350   -9.716404    0.887564
            13    0       1.166096      4.606430      2.607237     3.247513   -5.427511   -0.929700
            14    0       2.870706      0.802412      2.607237    -3.247513    5.427511   -0.929700
            15    0       1.166096      3.506832      0.620949     3.247513    5.427511   -0.929700
            16    0       2.870706      1.902009      0.620949    -3.247513   -5.427511   -0.929700
            17    1       3.273768      4.938904      0.611390    -0.353804    6.640727    8.020636
            18    1       0.763035      0.469937      0.611390     0.353804   -6.640727    8.020636
            19    1       3.273768      3.174358      2.597678    -0.353804   -6.640727    8.020636
            20    1       0.763035      2.234484      2.597678     0.353804    6.640727    8.020636
 Energy
         50.485729250000
 PlusStress:  xx          yy          zz          yz          xz          xy
       389.65992   431.30165   424.86114     0.00000     0.00000     0.00000
 Feature   mindist	1.194833
END_CFG

BEGIN_CFG
 Size
    10
 Supercell
         4.030919      0.000000      0.000000
         0.000000      4.030919      0.000000
         0.000000      0.000000      3.466081
 AtomData:  id type       cartes_x      cartes_y      cartes_z           fx          fy          fz
             1    2       0.000000      0.000000      0.000000    -0.000000    0.000000    0.000000
             2    2       2.015460      2.015460      0.000000     0.000000    0.000000    0.000000
             3    2       0.578805      2.015460      3.331376    17.808375    0.000000    1.884021
             4    2       3.452114      2.015460      3.331376   -17.808375    0.000000    1.884021
             5    2       2.015460      3.452114      0.134705    -0.000000  -17.808375   -1.884021
             6    2       2.015460      0.578805      0.134705    -0.000000   17.808375   -1.884021
             7    0       0.000000      2.015460      1.679028    -0.000000    0.000000   -4.438492
             8    0       2.015460      0.000000      1.787053    -0.000000    0.000000    4.438492
             9    1       2.015460      2.015460      1.733041     0.000000    0.000000    0.000000
            10    1       0.000000      0.000000      1.733041    -0.000000    0.000000    0.000000
 Energy
          3.302141950000
 PlusStress:  xx          yy          zz          yz          xz          xy
       165.63514   165.63514    64.54221     0.00000     0.00000     0.00000
 Feature   mindist	1.157610
END_CFG

BEGIN_CFG
 Size
    15
 Supercell
         4.534140      0.000000      0.000000
         0.000000      4.534140      0.000000
         0.000000      0.000000      4.548581
 AtomData:  id type       cartes_x      cartes_y      cartes_z           fx          fy          fz
             1    2       2.267070      2.267070      3.223849     0.000000   -0.000000   74.320673
             2    2       3.211273      2.320667      2.345595    42.790660    2.973434  -13.105028
             3    2       1.322867      2.213473      2.345595   -42.790660   -2.973434  -13.105028
             4    2       2.213473      3.211273      2.345595    -2.973434   42.790660  -13.105028
             5    2       2.320667      1.322867      2.345595     2.973434  -42.790660  -13.105028
             6    2       3.632423      1.311425      0.666180     0.487894   -1.192361   -4.426390
             7    2       0.901717      3.222715      0.666180    -0.487894    1.192361   -4.426390
             8    2       3.222715      3.632423      0.666180     1.192361    0.487894   -4.426390
             9    2       1.311425      0.901717      0.666180    -1.192361   -0.487894   -4.426390
            10    0       0.000000      0.000000      3.266515     0.000000   -0.000000   -1.161634
            11    0       0.000000      2.267070      3.778464     0.000000   -0.000000    2.318911
            12    0       2.267070      0.000000      3.778464     0.000000   -0.000000    2.318911
            13    1       2.267070      2.267070      0.185710     0.000000   -0.000000    1.695432
            14    1       0.000000      2.267070      1.633657     0.000000   -0.000000   -4.683311
            15    1       2.267070      0.000000      1.633657     0.000000   -0.000000   -4.683311
 Energy
         -5.062317470000
 PlusStress:  xx          yy          zz          yz          xz          xy
       176.55043   176.55043   187.45771    -0.00000     0.00000     0.00000
 Feature   mindist	1.290629
END_CFG

BEGIN_CFG
 Size
    20
 Supercell
         5.272797      0.000000      0.000000
         0.000000      5.346104      0.000000
         0.000000      0.000000      3.946960
 AtomData:  id type       cartes_x      cartes_y      cartes_z           fx          fy          fz
             1    2       1.660006      3.735950      1.973480    -4.722883   46.916399    0.000000
             2    2       3.612791      1.610153      1.973480     4.722883  -46.916399    0.000000
             3    2       0.976392      1.062898      1.973480     4.722883   46.916399    0.000000
             4    2       4.296405      4.283205      1.973480    -4.722883  -46.916399    0.000000
             5    2       3.668725      2.255683      2.936224     5.080510   16.380327   34.603270
             6    2       1.604072      3.090421      2.936224    -5.080510  -16.380327   34.603270
             7    2       4.240471      4.928735      1.010736    -5.080510   16.380327  -34.603270
             8    2       1.032326      0.417369      1.010736     5.080510  -16.380327  -34.603270
             9    2       1.604072      3.090421      1.010736    -5.080510  -16.380327  -34.603270
            10    2       3.668725      2.255683      1.010736     5.080510   16.380327  -34.603270
            11    2       1.032326      0.417369      2.936224     5.080510  -16.380327   34.603270
            12    2       4.240471      4.928735      2.936224    -5.080510   16.380327   34.603270
            13    0       4.488827      1.116978      0.000000     2.466377    0.576432    0.000000
            14    0       0.783970      4.229126      0.000000    -2.466377   -0.576432    0.000000
            15    0       3.420368      3.790030      0.000000    -2.466377    0.576432    0.000000
            16    0       1.852429      1.556074      0.000000     2.466377   -0.576432    0.000000
            17    1       0.000000      0.000000      1.973480     0.000000    0.000000    0.000000
            18    1       2.636399      2.673052      1.973480     0.000000    0.000000    0.000000
            19    1       0.000000      2.673052      1.973480     0.000000    0.000000    0.000000
            20    1       2.636399      0.000000      1.973480     0.000000    0.000000    0.000000
 Energy
         46.439639320000
 PlusStress:  xx          yy          zz          yz          xz          xy
       310.67984   287.98001   423.79713     0.00000     0.00000    -0.00000
 Feature   mindist	1.160479
END_CFG

BEGIN_CFG
 Size
    20
 Supercell
         4.557907      0.000000      0.000000
         0.000000      5.248823      0.000000
         0.000000      0.000000      4.167470
 AtomData:  id type       cartes_x      cartes_y      cartes_z           fx          fy          fz
             1    2       0.000000      0.000000      3.785973     0.000000   -0.000000    7.801295
             2    2       0.000000      0.000000      1.702238     0.000000   -0.000000    7.801295
             3    2       0.000000      2.624412      3.496040     0.000000   -0.000000   -3.322262
             4    2       0.000000      2.624412      1.412304     0.000000   -0.000000   -3.322262
             5    2       2.385247      4.547492      3.107803     4.723871  -19.194970    4.984971
             6    2       2.172660      0.701331      3.107803    -4.723871   19.194970    4.984971
             7    2       2.385247      0.701331      1.024068     4.723871   19.194970    4.984971
             8    2       2.172660      4.547492      1.024068    -4.723871  -19.194970    4.984971
             9    2       4.411675      4.011744      3.221732    -2.323300  -16.999291   -3.463717
            10    2       0.146231      1.237080      3.221732     2.323300   16.999291   -3.463717
            11    2       4.411675      1.237080      1.137997    -2.323300   16.999291   -3.463717
            12    2       0.146231      4.011744      1.137997     2.323300  -16.999291   -3.463717
            13    0       3.235894      3.440185      2.166907    -5.540385   -7.783485   -0.913184
            14    0       1.322013      1.808638      2.166907     5.540385    7.783485   -0.913184
            15    0       3.235894      1.808638      0.083171    -5.540385    7.783485   -0.913184
            16    0       1.322013      3.440185      0.083171     5.540385   -7.783485   -0.913184
            17    1       3.528687      4.472648      0.304630   -12.444320   -6.194957   -2.847587
            18    1       1.029220      0.776175      0.304630    12.444320    6.194957   -2.847587
            19    1       3.528687      0.776175      2.388365   -12.444320    6.194957   -2.847587
            20    1       1.029220      4.472648      2.388365    12.444320   -6.194957   -2.847587
 Energy
         10.596150650000
 PlusStress:  xx          yy          zz          yz          xz          xy
       242.89248   446.81980   246.83790     0.00000     0.00000     0.00000
 Feature   mindist	1.367522
END_CFG

BEGIN_CFG
 Size
    20
 Supercell
         4.902366      0.000000      0.000000
        -2.451183      4.245573      0.000000
         0.000000      0.000000      5.175294
 AtomData:  id type       cartes_x      cartes_y      cartes_z           fx          fy          fz
             1    2      -1.267766      3.955678      3.574612    13.239989  -11.358184   28.715947
             2    2      -0.340652      1.169817      3.574612     3.216482   17.145258   28.715947
             3    2       1.608417      3.365652      3.574612   -16.456471   -5.787074   28.715947
             4    2       3.718948      0.289896      1.600682   -13.239989   11.358184  -28.715947
             5    2       2.791834      3.075756      1.600682    -3.216482  -17.145258  -28.715947
             6    2       0.842766      0.879922      1.600682    16.456471    5.787074  -28.715947
             7    2      -0.223355      1.374764      1.888942   -10.702931   32.407086   -9.748442
             8    2       1.372280      3.364761      1.888942   -22.713897  -25.472552   -9.748442
             9    2      -1.148925      3.751622      1.888942    33.416829   -6.934533   -9.748442
            10    2       2.674538      2.870809      3.286352    10.702931  -32.407086    9.748442
            11    2       1.078903      0.880813      3.286352    22.713897   25.472552    9.748442
            12    2       3.600108      0.493951      3.286352   -33.416829    6.934533    9.748442
            13    0       0.000000      0.000000      0.000000     0.000000    0.000000   -0.000000
            14    0       2.451183      0.000000      0.000000     0.000000    0.000000   -0.000000
            15    0      -1.225591      2.122787      0.000000     0.000000    0.000000   -0.000000
            16    0       1.225591      2.122787      0.000000     0.000000    0.000000   -0.000000
            17    1       0.000000      0.000000      2.587647     0.000000    0.000000   -0.000000
            18    1       2.451183      0.000000      2.587647     0.000000    0.000000   -0.000000
            19    1      -1.225591      2.122787      2.587647     0.000000    0.000000   -0.000000
            20    1       1.225591      2.122787      2.587647     0.000000    0.000000   -0.000000
 Energy
         59.841887980000
 PlusStress:  xx          yy          zz          yz          xz          xy
       407.89365   407.89356   315.77150     0.00000     0.00000     0.00000
 Feature   mindist	1.210196
END_CFG

BEGIN_CFG
 Size
    20
 Supercell
         5.402762      0.000000      0.000000
         0.000000      5.402762      0.000000
         0.000000      0.000000      5.402762
 AtomData:  id type       cartes_x      cartes_y      cartes_z           fx          fy          fz
             1    2       2.272461      2.272461      5.043149   -65.228400  -65.228400  -49.844016
             2    2       3.130300      3.130300      5.043149    65.228400   65.228400  -49.844016
             3    2       3.130300      2.272461      0.359613    65.228400  -65.228400   49.844016
             4    2       2.272461      3.130300      0.359613   -65.228400   65.228400   49.844016
             5    2       5.043149      2.272461      2.272461   -49.844016  -65.228400  -65.228400
             6    2       5.043149      3.130300      3.130300   -49.844016   65.228400   65.228400
             7    2       0.359613      3.130300      2.272461    49.844016   65.228400  -65.228400
             8    2       0.359613      2.272461      3.130300    49.844016  -65.228400   65.228400
             9    2       2.272461      5.043149      2.272461   -65.228400  -49.844016  -65.228400
            10    2       3.130300      5.043149      3.130300    65.228400  -49.844016   65.228400
            11    2       2.272461      0.359613      3.130300   -65.228400   49.844016   65.228400
            12    2       3.130300      0.359613      2.272461    65.228400   49.844016  -65.228400
            13    0       4.386664      4.386664      4.386664     1.731620    1.731620    1.731620
            14    0       1.016097      1.016097      4.386664    -1.731620   -1.731620    1.731620
            15    0       1.016097      4.386664      1.016097    -1.731620    1.731620   -1.731620
            16    0       4.386664      1.016097      1.016097     1.731620   -1.731620   -1.731620
            17    1       1.856250      1.856250      1.856250    -1.233051   -1.233051   -1.233051
            18    1       3.546512      3.546512      1.856250     1.233051    1.233051   -1.233051
            19    1       3.546512      1.856250      3.546512     1.233051   -1.233051    1.233051
            20    1       1.856250      3.546512      3.546512    -1.233051    1.233051    1.233051
 Energy
        109.868110370000
 PlusStress:  xx          yy          zz          yz          xz          xy
       383.71935   383.71935   383.71935    -0.00000     0.00000    -0.00000
 Feature   mindist	1.119452
END_CFG

BEGIN_CFG
 Size
    20
 Supercell
         5.387785      0.000000      0.000000
         0.000000      5.387785      0.000000
         0.000000      0.000000      3.717918
 AtomData:  id type       cartes_x      cartes_y      cartes_z           fx          fy          fz
             1    2       0.000000      1.648530      0.000000    -0.000000    7.648129    0.000000
             2    2       0.000000      3.739255      1.858959    -0.000000   -7.648129    0.000000
             3    2       3.739255      0.000000      0.929480    -7.648129    0.000000    0.000000
             4    2       1.648530      0.000000      2.788439     7.648129    0.000000    0.000000
             5    2       3.978196      1.002472      1.562190   -10.481008   25.446961    1.153190
             6    2       1.409589      4.385313      3.421149    10.481008  -25.446961    1.153190
             7    2       4.385313      3.978196      2.491669   -25.446961  -10.481008    1.153190
             8    2       1.002472      1.409589      0.632710    25.446961   10.481008    1.153190
             9    2       1.409589      1.002472      2.155729    10.481008   25.446961   -1.153190
            10    2       3.978196      4.385313      0.296769   -10.481008  -25.446961   -1.153190
            11    2       1.002472      3.978196      1.226249    25.446961  -10.481008   -1.153190
            12    2       4.385313      1.409589      3.085208   -25.446961   10.481008   -1.153190
            13    0       2.693893      0.952037      0.000000    -0.000000   11.344038    0.000000
            14    0       2.693893      4.435748      1.858959    -0.000000  -11.344038    0.000000
            15    0       4.435748      2.693893      0.929480   -11.344038    0.000000    0.000000
            16    0       0.952037      2.693893      2.788439    11.344038    0.000000    0.000000
            17    1       0.000000      4.241215      0.000000    -0.000000   -3.740204    0.000000
            18    1       0.000000      1.146570      1.858959    -0.000000    3.740204    0.000000
            19    1       1.146570      0.000000      0.929480     3.740204    0.000000    0.000000
            20    1       4.241215      0.000000      2.788439    -3.740204    0.000000    0.000000
 Energy
         45.567705350000
 PlusStress:  xx          yy          zz          yz          xz          xy
       372.78800   372.78800   361.72546     0.00000    -0.00000     0.00000
 Feature   mindist	1.209283
END_CFG

BEGIN_CFG
 Size
    20
 Supercell
         4.718315      0.000000      0.000000
        -2.359157      4.086180      0.000000
         0.000000      0.000000      5.457588
 AtomData:  id type       cartes_x      cartes_y      cartes_z           fx          fy          fz
             1    2       2.363816      3.014483      5.442775     0.017643  -43.289000    7.960047
             2    2       0.925788      0.539883      5.442775    37.480558   21.659784    7.960047
             3    2       3.787868      0.531815      5.442775   -37.498202   21.629216    7.960047
             4    2       1.428711      3.554366      5.442775   -37.498207  -21.629216    7.960047
             5    2       0.004658      1.071697      5.442775     0.017654   43.289000    7.960047
             6    2      -1.433369      3.546298      5.442775    37.480553  -21.659784    7.960047
             7    2      -0.244381      3.526966      4.368208    -4.479204  -16.572088    2.526549
             8    2      -0.573095      2.111057      4.368208    16.591453    4.406942    2.526549
             9    2       0.817475      2.534337      4.368208   -12.112249   12.165146    2.526549
            10    2       3.176633      1.551843      4.368208   -12.112252  -12.165146    2.526549
            11    2       2.114777      0.559214      4.368208    -4.479200   16.572088    2.526549
            12    2       1.786063      1.975123      4.368208    16.591452   -4.406942    2.526549
            13    0       0.000000      0.000000      4.096071    -0.000000    0.000000  -14.598334
            14    0       2.633092      0.000000      1.131386    -6.734033    0.000000    4.906673
            15    0      -1.316546      2.280325      1.131386     3.367016   -5.831843    4.906673
            16    0       1.042611      1.805855      1.131386     3.367017    5.831843    4.906673
            17    1       0.000000      0.000000      2.009703     0.000000    0.000000    7.619567
            18    1       2.802246      0.000000      3.225434     7.043472    0.000000  -23.553610
            19    1      -1.401123      2.426816      3.225434    -3.521735    6.099825  -23.553610
            20    1       0.958035      1.659364      3.225434    -3.521737   -6.099825  -23.553610
 Energy
        105.697340600000
 PlusStress:  xx          yy          zz          yz          xz          xy
       505.17983   505.17967   312.16834     0.00000     0.00000     0.00006
 Feature   mindist	1.063629
END_CFG

BEGIN_CFG
 Size
    15
 Supercell
         4.601077      0.000000      0.000000
        -2.300538      3.984650      0.000000
         0.000000      0.000000      4.048559
 AtomData:  id type       cartes_x      cartes_y      cartes_z           fx          fy          fz
             1    2       0.000000      0.000000      2.564205     0.000000    0.000000   46.226943
             2    2      -0.000002      2.656434      1.903270     0.000000    0.000000  -11.377007
             3    2       2.300541      1.328215      1.903270     0.000000   -0.000000  -11.377007
             4    2      -1.174095      3.417065      1.820502     2.312267    0.595056  -17.986903
             5    2      -0.071679      1.259321      1.820502    -1.671466    1.704954  -17.986903
             6    2       1.245774      3.292913      1.820502    -0.640800   -2.300009  -17.986903
             7    2       3.474633      0.567584      1.820502    -2.312267   -0.595056  -17.986903
             8    2       2.372218      2.725328      1.820502     1.671466   -1.704954  -17.986903
             9    2       1.054764      0.691737      1.820502     0.640800    2.300009  -17.986903
            10    0       2.300538      0.000000      0.375258     0.000000    0.000000   -2.631774
            11    0      -1.150269      1.992325      0.375258     0.000000    0.000000   -2.631774
            12    0       1.150269      1.992325      0.375258     0.000000    0.000000   -2.631774
            13    1       2.300538      0.000000      2.404589     0.000000   -0.000000   30.781270
            14    1      -1.150269      1.992325      2.404589     0.000000    0.000000   30.781270
            15    1       1.150269      1.992325      2.404589     0.000000   -0.000000   30.781270
 Energy
        111.322673850000
 PlusStress:  xx          yy          zz          yz          xz          xy
       486.07894   486.07904   192.21127     0.00000    -0.00000     0.00006
 Feature   mindist	1.261359
END_CFG

BEGIN_CFG
 Size
    20
 Supercell
         4.545626      0.000000      0.000000
        -2.272813      3.936627      0.000000
         0.000000      0.000000      4.782763
 AtomData:  id type       cartes_x      cartes_y      cartes_z           fx          fy          fz
             1    2       1.217768      0.727657      3.919681    19.951200    9.987606  -17.344701
             2    2       3.306572      0.690790      3.919681   -18.625122   12.284440  -17.344701
             3    2       2.294098      2.518181      3.919681    -1.326078  -22.272046  -17.344701
             4    2       1.217768      0.727657      0.863082    19.951200    9.987606   17.344701
             5    2       3.306572      0.690790      0.863082   -18.625122   12.284440   17.344701
             6    2       2.294098      2.518181      0.863082    -1.326078  -22.272046   17.344701
             7    2       0.021285      1.418447      0.863082    -1.326078   22.272046   17.344701
             8    2      -1.055045      3.208970      0.863082    19.951200   -9.987606   17.344701
             9    2       1.033759      3.245838      0.863082   -18.625122  -12.284440   17.344701
            10    2       0.021285      1.418447      3.919681    -1.326078   22.272046  -17.344701
            11    2      -1.055045      3.208970      3.919681    19.951200   -9.987606  -17.344701
            12    2       1.033759      3.245838      3.919681   -18.625122  -12.284440  -17.344701
            13    0       0.000000      0.000000      0.000000    -0.000000   -0.000000   -0.000000
            14    0       2.506341      0.000000      2.391381    -5.466556   -0.000000   -0.000000
            15    0      -1.253171      2.170555      2.391381     2.733278   -4.734176   -0.000000
            16    0       1.019642      1.766072      2.391381     2.733278    4.734176   -0.000000
            17    1       0.000000      0.000000      2.391381    -0.000000   -0.000000   -0.000000
            18    1       2.183719      0.000000      0.000000     6.968705   -0.000000   -0.000000
            19    1      -1.091860      1.891156      0.000000    -3.484353    6.035075   -0.000000
            20    1       1.180953      2.045471      0.000000    -3.484353   -6.035075   -0.000000
 Energy
         63.075378410000
 PlusStress:  xx          yy          zz          yz          xz          xy
       476.90244   476.90230   325.91287     0.00000     0.00000     0.00000
 Feature   mindist	1.381579
END_CFG

BEGIN_CFG
 Size
    20
 Supercell
         4.839306      0.000000      0.000000
         0.000000      5.068675      0.000000
         0.000000      0.000000      5.404567
 AtomData:  id type       cartes_x      cartes_y      cartes_z           fx          fy          fz
             1    2       2.203016      3.885711      3.871423    -7.832734   16.730809   -9.685421
             2    2       0.216638      1.182963      1.169139     7.832734  -16.730809   -9.685421
             3    2       2.636291      1.351374      4.235428     7.832734   16.730809    9.685421
             4    2       4.622669      3.717301      1.533144    -7.832734  -16.730809    9.685421
             5    2       2.077715      2.723489      1.033566     2.179989    1.144942   -5.891677
             6    2       0.341938      2.345185      3.735850    -2.179989   -1.144942   -5.891677
             7    2       2.761592      0.189152      1.668717    -2.179989    1.144942    5.891677
             8    2       4.497368      4.879523      4.371001     2.179989   -1.144942    5.891677
             9    2       3.076042      3.092216      4.271153    20.228489   -8.035823    6.827645
            10    2       4.182917      1.976459      1.568870   -20.228489    8.035823    6.827645
            11    2       1.763264      0.557878      3.835698   -20.228489   -8.035823   -6.827645
            12    2       0.656389      4.510796      1.133414    20.228489    8.035823   -6.827645
            13    0       0.292801      4.949548      2.826035     8.071557    0.754185    0.279970
            14    0       2.126853      0.119127      0.123751    -8.071557   -0.754185    0.279970
            15    0       4.546506      2.415211      5.280816    -8.071557    0.754185   -0.279970
            16    0       2.712454      2.653464      2.578532     8.071557   -0.754185   -0.279970
            17    1       1.602022      2.753195      4.613147    -5.797288   -6.262941    9.231451
            18    1       0.817631      2.315480      1.910863     5.797288    6.262941    9.231451
            19    1       3.237284      0.218858      3.493704     5.797288   -6.262941   -9.231451
            20    1       4.021676      4.849817      0.791420    -5.797288    6.262941   -9.231451
 Energy
        -42.502661730000
 PlusStress:  xx          yy          zz          yz          xz          xy
       215.29171   225.50102   171.56331     0.00000     0.00000     0.00000
 Feature   mindist	1.245629
END_CFG

BEGIN_CFG
 Size
    10
 Supercell
         4.288684      0.000000      0.000000
         0.000000      4.288684      0.000000
         0.000000      0.000000      3.733026
 AtomData:  id type       cartes_x      cartes_y      cartes_z           fx          fy          fz
             1    2       1.072171      1.072171      0.653648    -0.000000    0.000000   -2.941795
             2    2       3.216513      3.216513      3.079378     0.000000    0.000000    2.941795
             3    2       0.000000      0.000000      1.866513     0.000000    0.000000    0.000000
             4    2       2.144342      2.144342      1.866513     0.000000    0.000000    0.000000
             5    2       2.144342      0.000000      1.866513     0.000000    0.000000    0.000000
             6    2       0.000000      2.144342      1.866513     0.000000    0.000000    0.000000
             7    0       1.072171      1.072171      2.709988     0.000000   -0.000000   -3.411240
             8    0       3.216513      3.216513      1.023038     0.000000    0.000000    3.411240
             9    1       1.072171      3.216513      0.000000     0.000000   -0.000000    0.000000
            10    1       3.216513      1.072171      0.000000    -0.000000    0.000000    0.000000
 Energy
        -30.655315000000
 PlusStress:  xx          yy          zz          yz          xz          xy
        68.00662    68.00662    48.77645     0.00000     0.00000     0.00000
 Feature   mindist	1.676686
END_CFG

BEGIN_CFG
 Size
    20
 Supercell
         5.041406      0.000000      0.000000
        -2.520703      4.365986      0.000000
         0.000000      0.000000      4.959160
 AtomData:  id type       cartes_x      cartes_y      cartes_z           fx          fy          fz
             1    2      -0.680078      3.446514      1.603757     8.332050   14.021004  -15.905276
             2    2      -0.124027      2.053764      1.603757   -16.308570    0.205266  -15.905276