BEGIN_CFG
Size
16
Supercell
5.738818 0.0 0.0
0.0 5.738818 0.0
0.0 0.0 5.738818
AtomData: id type cartes_x cartes_y cartes_z fx fy fz
1 0 0.0 0.0 0.0 7.105427357601002e-15 0.0 1.4210854715202004e-14
2 0 0.0 2.869408999999999 2.869408999999999 2.256875242245826e-15 2.813721478034381e-15 -1.8474805019152996e-15
3 0 2.869408999999999 0.0 2.869408999999999 4.034966805122053e-15 -2.411265631607762e-16 6.8122590901609215e-15
4 0 2.869408999999999 2.869408999999999 0.0 -6.245004513516506e-17 6.800116025829084e-15 6.74807432154978e-16
5 0 0.0 1.375759 1.375759 3.941291737419306e-15 6.1527949176982535 6.15279491769823
6 0 0.0 4.363059 1.375759 -7.105427357601002e-15 -6.152794917698299 6.152794917698261
7 0 0.0 1.375759 4.363059 5.435756011973325e-15 6.152794917698283 -6.152794917698277
8 0 0.0 4.363059 4.363059 -5.568462357885551e-15 -6.15279491769828 -6.152794917698255
9 0 1.375759 0.0 1.375759 6.152794917698262 4.496403249731884e-15 6.152794917698237
10 0 1.375759 0.0 4.363059 6.1527949176982855 -4.833806965809373e-15 -6.152794917698279
11 0 4.363059 0.0 1.375759 -6.152794917698306 0.0 6.152794917698278
12 0 4.363059 0.0 4.363059 -6.152794917698302 1.536964999715451e-15 -6.152794917698246
13 0 1.375759 1.375759 0.0 6.152794917698275 6.152794917698241 1.0679608239416716e-14
14 0 4.363059 1.375759 0.0 -6.152794917698295 6.152794917698266 -1.824929096727601e-15
15 0 1.375759 4.363059 0.0 6.1527949176982455 -6.152794917698293 1.3617579286417936e-16
16 0 4.363059 4.363059 0.0 -6.152794917698293 -6.152794917698291 -3.823330541052883e-15
Energy
45.66529082247923
PlusStress: xx yy zz yz xz xy
76.36875963329511 76.36875963329537 76.36875963329521 1.3829215550487105e-14 1.1449174941446927e-14 2.886579864025407e-14
END_CFG
BEGIN_CFG
Size
16
Supercell
7.783035 0.0 0.0
0.0 7.783035 0.0
0.0 0.0 7.783035
AtomData: id type cartes_x cartes_y cartes_z fx fy fz
1 0 3.158981 3.158981 3.158981 -5.43948865875322 -5.439488658753218 -5.439488658753222
2 0 3.158981 7.050499 7.050499 -5.439488659601129 -5.439488229006108 -5.439488229006106
3 0 7.050499 3.158981 7.050499 -5.439488229006106 -5.439488659601134 -5.439488229006106
4 0 7.050499 7.050499 3.158981 -5.439488229006107 -5.4394882290061 -5.439488659601133
5 0 4.624053 4.624053 3.158981 5.439488229006096 5.439488229006106 -5.439488659601139
6 0 4.624053 0.732536 7.050499 5.439488229006096 5.439488659601126 -5.439488229006096
7 0 0.732536 4.624053 7.050499 5.439488659601127 5.439488229006099 -5.439488229006101
8 0 0.732536 0.732536 3.158981 5.439488658753227 5.439488658753228 -5.439488658753232
9 0 4.624053 3.158981 4.624053 5.439488229006099 -5.439488659601139 5.439488229006099
10 0 4.624053 7.050499 0.732536 5.439488229006091 -5.439488229006105 5.439488659601124
11 0 0.732536 3.158981 0.732536 5.439488658753233 -5.439488658753229 5.439488658753232
12 0 0.732536 7.050499 4.624053 5.439488659601121 -5.439488229006097 5.439488229006102
13 0 3.158981 4.624053 4.624053 -5.439488659601135 5.4394882290060975 5.4394882290060975
14 0 3.158981 0.732536 0.732536 -5.439488658753235 5.439488658753233 5.439488658753233
15 0 7.050499 4.624053 0.732536 -5.439488229006103 5.4394882290061 5.439488659601124
16 0 7.050499 0.732536 4.624053 -5.439488229006103 5.439488659601122 5.439488229006101
Energy
32.510412122493236
PlusStress: xx yy zz yz xz xy
55.07199524358318 55.07199524358318 55.071995243583025 3.207503707081117e-14 -4.254496061006918e-14 1.036514624130902e-13
END_CFG
BEGIN_CFG
Size
16
Supercell
7.534869 0.0 0.0
0.0 7.534869 0.0
0.0 0.0 7.534869
AtomData: id type cartes_x cartes_y cartes_z fx fy fz
1 0 2.665258 2.665258 2.665258 5.71964192172781 5.719641921727812 5.719641921727828
2 0 1.102176 1.102176 2.665258 -5.71964206643089 -5.719642066430888 5.719641886216919
3 0 1.102176 2.665258 1.102176 -5.71964206643089 5.719641886216919 -5.719642066430884
4 0 2.665258 1.102176 1.102176 5.719641886216914 -5.7196420664308905 -5.7196420664308905
5 0 4.869611 4.869611 4.869611 -5.719641921727798 -5.719641921727798 -5.719641921727811
6 0 6.432693 6.432693 4.869611 5.7196420664308665 5.719642066430863 -5.7196418862169045
7 0 6.432693 4.869611 6.432693 5.719642066430866 -5.719641886216898 5.719642066430877
8 0 4.869611 6.432693 6.432693 -5.719641886216898 5.719642066430862 5.719642066430875
9 0 0.78035 0.78035 0.78035 -6.3128056988740555 -6.3128056988740555 -6.3128056988740555
10 0 2.987084 2.987084 0.78035 6.31280651562847 6.312806515628468 -6.3128067124095
11 0 2.987084 0.78035 2.987084 6.312806515628467 -6.312806712409489 6.312806515628469
12 0 0.78035 2.987084 2.987084 -6.312806712409486 6.312806515628468 6.312806515628473
13 0 6.754519 6.754519 6.754519 6.312805698874055 6.312805698874056 6.312805698874065
14 0 4.547785 4.547785 6.754519 -6.312806515628465 -6.312806515628469 6.312806712409513
15 0 4.547785 6.754519 4.547785 -6.312806515628462 6.3128067124095 -6.3128065156284805
16 0 6.754519 4.547785 4.547785 6.312806712409499 -6.312806515628463 -6.312806515628477
Energy
48.80803463136093
PlusStress: xx yy zz yz xz xy
88.83256491930277 88.83256491930274 88.83256491930278 1.1912434129250117e-06 1.191243407873063e-06 1.1912434096455168e-06
END_CFG
BEGIN_CFG
Size
16
Supercell
7.058542 0.0 0.0
0.0 7.058542 0.0
0.0 0.0 7.058542
AtomData: id type cartes_x cartes_y cartes_z fx fy fz
1 0 6.058685999999998 6.058685999999998 6.058685999999998 -0.1822665040319673 -0.18226650403196643 -0.18226650403196742
2 0 2.5294149999999997 2.5294149999999997 2.5294149999999997 -0.1822665040319663 -0.18226650403196654 -0.1822665040319667
3 0 4.529128 0.999857 2.5294149999999997 0.18226618048269427 0.1822661896978573 -0.1822660470818233
4 0 0.999857 4.529128 6.058685999999998 0.18226618048269747 0.18226618969785838 -0.18226604708182154
5 0 0.999857 2.5294149999999997 4.529128 0.1822661896978597 -0.18226604708182326 0.18226618048269452
6 0 4.529128 6.058685999999998 0.999857 0.1822661896978583 -0.1822660470818212 0.1822661804826945
7 0 2.5294149999999997 4.529128 0.999857 -0.1822660470818252 0.182266180482694 0.1822661896978569
8 0 6.058685999999998 0.999857 4.529128 -0.1822660470818223 0.18226618048269494 0.18226618969785918
9 0 0.764779 0.764779 0.764779 -0.18226595661517647 -0.1822659566151778 -0.18226595661517775
10 0 4.29405 4.29405 4.29405 -0.18226595661517578 -0.18226595661517475 -0.1822659566151754
11 0 2.764492 6.293763 4.29405 0.18226627094932943 0.18226628016446067 -0.18226641356537776
12 0 6.293763 2.764492 0.764779 0.1822662709493318 0.18226628016446023 -0.1822664135653779
13 0 4.29405 2.764492 6.293763 -0.18226641356537643 0.18226627094933026 0.18226628016445823
14 0 0.764779 6.293763 2.764492 -0.18226641356537776 0.18226627094933168 0.18226628016446061
15 0 6.293763 4.29405 2.764492 0.18226628016445856 -0.18226641356537743 0.1822662709493311
16 0 2.764492 0.764779 6.293763 0.18226628016446036 -0.18226641356537612 0.18226627094933223
Energy
7.463076487097496
PlusStress: xx yy zz yz xz xy
0.23017480157614983 0.2301748015762004 0.2301748015761497 2.6527325039796786e-12 2.662405018671876e-12 2.658666320168902e-12
END_CFG
BEGIN_CFG
Size
16
Supercell
7.775503 0.0 0.0
0.0 4.026558 0.0
0.0 0.0 6.25161
AtomData: id type cartes_x cartes_y cartes_z fx fy fz
1 0 0.9719379999999999 0.50332 0.781451 5.968495581654132e-07 -1.6264767310758543e-14 1.8575692514871678e-06
2 0 0.9719379999999999 2.516599 3.9072560000000003 5.968494441551309e-07 2.015014132113191e-14 1.8575667916616388e-06
3 0 4.859689 0.50332 3.9072560000000003 2.3658487186689614e-06 -7.93809462606987e-15 1.8575716782959217e-06
4 0 4.859689 2.516599 0.781451 2.3658441113945267e-06 8.415116476909179e-15 1.857569211152787e-06
5 0 6.803564999999998 3.523239 5.470159 -5.968494999820289e-07 -2.8519605782924192e-05 -1.8575680266978006e-06
6 0 6.803564999999998 1.509959 2.344354 -5.968494944685084e-07 2.8519605793672376e-05 -1.8575680276102652e-06
7 0 2.915814 3.523239 2.344354 -2.365846422304474e-06 -2.851960414595317e-05 -1.857570440813583e-06
8 0 2.915814 1.509959 5.470159 -2.3658464224029466e-06 2.8519604126630085e-05 -1.8575704419775824e-06
9 0 0.9719379999999999 0.50332 3.9072560000000003 5.968495642300065e-07 -1.4904744105592727e-14 1.8575692547900813e-06
10 0 0.9719379999999999 2.516599 0.781451 5.968494370787398e-07 1.55257208998838e-14 1.8575667940937143e-06
11 0 4.859689 0.50332 0.781451 2.365848719473873e-06 -1.1018963519404679e-14 1.8575716785318441e-06
12 0 4.859689 2.516599 3.9072560000000003 2.365844116176441e-06 7.99073264154404e-15 1.8575692071407646e-06
13 0 6.803564999999998 3.523239 2.344354 -5.968494950249481e-07 -2.85196057804582e-05 -1.8575680287898771e-06
14 0 6.803564999999998 1.509959 5.470159 -5.968494975888694e-07 2.8519605796042957e-05 -1.8575680236329847e-06
15 0 2.915814 3.523239 5.470159 -2.3658464207587472e-06 -2.851960414639135e-05 -1.8575704406948899e-06
16 0 2.915814 1.509959 2.344354 -2.3658464214296515e-06 2.8519604145099686e-05 -1.8575704409454897e-06
Energy
14.925441498040026
PlusStress: xx yy zz yz xz xy
-5.7428636500390615 113.98169360321178 -15.351572889343062 6.155747569666636e-15 1.589418889200427e-11 -3.1081636830271316e-15
END_CFG
BEGIN_CFG
Size
16
Supercell
6.317546 0.0 0.0
0.0 6.317546 0.0
0.0 0.0 6.317546
AtomData: id type cartes_x cartes_y cartes_z fx fy fz
1 0 5.579633 5.579633 5.579633 -3.098099123415953 -3.098099123415942 -3.098099123415939
2 0 5.579633 2.42086 2.42086 -3.098099123415933 -3.0980991234159205 -3.0980991234159103
3 0 2.42086 5.579633 2.42086 -3.098099123415909 -3.098099123415925 -3.0980991234159165
4 0 2.42086 2.42086 5.579633 -3.098099123415919 -3.0980991234159143 -3.098099123415916
5 0 0.737913 0.737913 5.579633 3.0980991234159267 3.0980991234159356 -3.0980991234159294
6 0 0.737913 3.8966860000000003 2.42086 3.098099123415917 3.09809912341592 -3.098099123415917
7 0 3.8966860000000003 0.737913 2.42086 3.0980991234159236 3.0980991234159188 -3.0980991234159165
8 0 3.8966860000000003 3.8966860000000003 5.579633 3.098099123415926 3.098099123415927 -3.0980991234159196
9 0 0.737913 5.579633 0.737913 3.098099123415932 -3.0980991234159463 3.0980991234159334
10 0 0.737913 2.42086 3.8966860000000003 3.09809912341591 -3.098099123415917 3.098099123415919
11 0 3.8966860000000003 5.579633 3.8966860000000003 3.0980991234159228 -3.0980991234159307 3.0980991234159188
12 0 3.8966860000000003 2.42086 0.737913 3.0980991234159228 -3.098099123415921 3.0980991234159156
13 0 5.579633 0.737913 0.737913 -3.0980991234159423 3.098099123415925 3.098099123415924
14 0 5.579633 3.8966860000000003 3.8966860000000003 -3.098099123415933 3.0980991234159174 3.0980991234159214
15 0 2.42086 0.737913 3.8966860000000003 -3.0980991234159205 3.0980991234159116 3.0980991234159174
16 0 2.42086 3.8966860000000003 0.737913 -3.098099123415921 3.0980991234159183 3.098099123415919
Energy
28.069091316524375
PlusStress: xx yy zz yz xz xy
55.522909599556094 55.52290959955628 55.522909599556485 4.5879939281701163e-14 1.2883858679902348e-13 6.754746273020358e-14
END_CFG
BEGIN_CFG
Size
16
Supercell
5.680469 0.0 0.0
0.0 5.680469 0.0
0.0 0.0 5.680469
AtomData: id type cartes_x cartes_y cartes_z fx fy fz
1 0 0.0 0.0 0.0 -4.126430089557848e-06 -4.126430089873567e-06 -4.126430090760011e-06
2 0 2.840234 2.840234 2.840234 4.0445607688704976e-07 4.0445607810656037e-07 4.0445607771277814e-07
3 0 0.0 2.840234 2.840234 -4.126437866069921e-06 4.04456487856919e-07 4.0445647986331323e-07
4 0 2.840234 0.0 0.0 4.044568827354933e-07 -4.126433971679902e-06 -4.126433970791724e-06
5 0 2.840234 0.0 2.840234 4.0445647995351885e-07 -4.126437863034155e-06 4.044564809613932e-07
6 0 0.0 2.840234 0.0 -4.12643397332442e-06 4.044568845326668e-07 -4.126433974009636e-06
7 0 2.840234 2.840234 0.0 4.044564817298757e-07 4.044564800732148e-07 -4.126437869251404e-06
8 0 0.0 0.0 2.840234 -4.126433975988955e-06 -4.1264339757859925e-06 4.0445688275631e-07
9 0 1.420117 1.420117 1.420117 -4.044560775184891e-07 -4.044560773242001e-07 -4.0445607676908857e-07
10 0 4.260351 4.260351 4.260351 4.126430089311517e-06 4.126430089314986e-06 4.126430087542099e-06
11 0 4.260351 4.260351 1.420117 4.126433986728628e-06 4.126433979623201e-06 -4.044568810424032e-07
12 0 1.420117 1.420117 4.260351 -4.0445647789266737e-07 -4.0445647675468877e-07 4.126437882223666e-06
13 0 4.260351 1.420117 4.260351 4.126433980511379e-06 -4.044568814864924e-07 4.126433977687249e-06
14 0 1.420117 4.260351 1.420117 -4.044564771710224e-07 4.126437881057932e-06 -4.0445647542242114e-07
15 0 1.420117 4.260351 4.260351 -4.0445688302692684e-07 4.126433979864327e-06 4.126433979892083e-06
16 0 4.260351 1.420117 1.420117 4.126437883406747e-06 -4.04456477982873e-07 -4.04456478879725e-07
Energy
3.118434476983115
PlusStress: xx yy zz yz xz xy
21.411513895617674 21.411513895617567 21.411513895617674 9.12026704158464e-12 9.12173808709227e-12 9.101750603202063e-12
END_CFG
BEGIN_CFG
Size
16
Supercell
6.280359 0.0 0.0
0.0 6.280359 0.0
0.0 0.0 6.280359
AtomData: id type cartes_x cartes_y cartes_z fx fy fz
1 0 0.800384 0.800384 0.800384 -0.0343511262178367 -0.03435112621783442 -0.03435112621783587
2 0 3.9405629999999996 3.9405629999999996 3.9405629999999996 -0.03435143615173966 -0.034351436151741646 -0.0343514361517389
3 0 2.339796 5.479975999999999 3.9405629999999996 0.03435428304476241 0.0343522278511478 -0.03434748762153527
4 0 5.479975999999999 2.339796 0.800384 0.03434827932320023 0.03435033451509917 -0.03435507474524924
5 0 5.479975999999999 3.9405629999999996 2.339796 0.03435222785114351 -0.03434748762153543 0.03435428304476273
6 0 2.339796 0.800384 5.479975999999999 0.034350334515100944 -0.03435507474525267 0.034348279323205055
7 0 3.9405629999999996 2.339796 5.479975999999999 -0.034347487621535826 0.03435428304476547 0.03435222785114837
8 0 0.800384 5.479975999999999 2.339796 -0.0343550747452437 0.034348279323209746 0.0343503345151011
9 0 5.479975999999999 5.479975999999999 5.479975999999999 0.03435143615174303 0.034351436151738586 0.03435143615173903
10 0 2.339796 2.339796 2.339796 0.03435112621783569 0.03435112621783382 0.03435112621783527
11 0 3.9405629999999996 0.800384 2.339796 -0.0343482793232059 -0.0343503345151161 0.034355074745233076
12 0 0.800384 3.9405629999999996 5.479975999999999 -0.03435428304476379 -0.03435222785113193 0.034347487621552486
13 0 0.800384 2.339796 3.9405629999999996 -0.03435033451511593 0.03435507474523547 -0.03434827932320509
14 0 3.9405629999999996 5.479975999999999 0.800384 -0.03435222785113188 0.03434748762155795 -0.03435428304475896
15 0 2.339796 3.9405629999999996 0.800384 0.03435507474523072 -0.034348279323206145 -0.03435033451511411
16 0 5.479975999999999 0.800384 3.9405629999999996 0.03434748762155841 -0.03435428304475942 -0.034352227851132414
Energy
12.01463742409214
PlusStress: xx yy zz yz xz xy
21.71690579317069 21.716905793170667 21.716905793170955 4.264928687991443e-12 4.2514724379882915e-12 4.284116464359222e-12
END_CFG
BEGIN_CFG
Size
16
Supercell
7.258108 0.0 0.0
-3.629054 6.285706 0.0
0.0 0.0 6.231562
AtomData: id type cartes_x cartes_y cartes_z fx fy fz
1 0 0.0 0.0 3.1157809999999997 6.811523342021967e-06 -4.484549249708994e-06 -1.1796119636642288e-16
2 0 -4.000000000115023e-06 4.190473 3.1157809999999997 9.734948643164154e-05 -5.831286554608406e-05 2.1538326677728037e-14
3 0 3.629057999999999 2.095233 3.1157809999999997 -8.978025973237084e-05 5.278155386150234e-05 2.3484686417774014e-14
4 0 3.6290539999999987 0.0 3.1157809999999997 7.4086505555541774e-06 5.063312372087861e-06 -4.440892098500626e-16
5 0 -1.8145269999999998 3.1428529999999997 3.1157809999999997 -1.0985392829843121e-06 2.4304657486595715e-07 2.806424368603124e-16
6 0 1.814526999999999 3.1428529999999997 3.1157809999999997 -4.224960188092819e-07 6.520075451765805e-10 1.0005190627705932e-15
7 0 -4.000000000115023e-06 4.190473 5.059235 2.25089762372066e-06 -1.4505195619213263e-06 3.3955808205854687
8 0 3.629057999999999 2.095233 5.059235 -1.946501819713453e-06 1.1771447638031507e-06 3.395580741160602
9 0 3.629057999999999 2.095233 1.172327 -1.946501815919613e-06 1.1771447647095437e-06 -3.395580741160611
10 0 -4.000000000115023e-06 4.190473 1.172327 2.2508976254886077e-06 -1.4505195627362804e-06 -3.3955808205854945
11 0 0.0 2.126762 3.1157809999999997 5.148791915488005e-06 -0.6480063672657792 -1.6445178552260131e-15
12 0 1.7872239999999984 5.222325 3.1157809999999997 0.561194469162258 0.3240064922296991 -2.9617692846872767e-16
13 0 -1.787224 5.222325 3.1157809999999997 -0.5612618809130829 0.3240429400697156 -1.2974647398134032e-15
14 0 3.6290539999999996 4.158944 3.1157809999999997 1.542039683963072e-06 0.6480113496878281 -1.122122143468185e-15
15 0 1.84183 1.063381 3.1157809999999997 -0.5611962325751984 -0.3240065935899442 1.0059498806863632e-15
16 0 5.416279 1.063381 3.1157809999999997 0.5612360763374933 -0.3240425655319303 -2.353369235597036e-15
Energy
35.09781482129708
PlusStress: xx yy zz yz xz xy
84.22854985247415 84.22851778424246 39.29929255686825 -4.496999560926751e-16 -1.1037110353266655e-14 -2.5597240325703232e-05
END_CFG
BEGIN_CFG
Size
16
Supercell
4.849259 0.0 0.0
0.0 6.962789 0.0
0.0 0.0 5.285312
AtomData: id type cartes_x cartes_y cartes_z fx fy fz
1 0 2.040192 1.909456 4.53966 1.0449927134383519 0.837232411589157 -2.507720095009778
2 0 2.040192 5.390851 1.897004 1.0449841733556444 0.8372230153312127 -2.507717044510147
3 0 2.809067 5.053333 4.53966 -1.0449862625187827 -0.8372325545134683 -2.50772017561696
4 0 2.809067 1.571938 1.897004 -1.0449777224350627 -0.8372231582547837 -2.507717125117075
5 0 4.464822 1.571938 4.53966 1.0449742836205704 -0.8372201507502324 -2.5077185012208756
6 0 4.464822 5.053333 1.897004 1.0449828237117096 -0.8372295470136288 -2.5077215517173923
7 0 0.384438 5.390851 4.53966 -1.0449851040033251 0.8372253307032301 -2.507719909875751
8 0 0.384438 1.909456 1.897004 -1.0449936440874024 0.8372347269739142 -2.507722960382001
9 0 1.180311 3.7454440000000004 0.128378 -0.002630917780356852 -2.3078582894900217 2.5077177303490608
10 0 1.180311 0.26405 2.7710339999999993 -0.002629602799024221 -2.3078683202348347 2.5077228642586222
11 0 3.668948 3.217345 0.128378 0.002631954809769077 2.3078538998709486 2.5077160578724227
12 0 3.668948 6.698739 2.7710339999999993 0.002630639830672129 2.30786393060417 2.5077211917755093
13 0 3.6049409999999997 6.698739 0.128378 -0.0026359690775737167 2.307864629261815 2.507721177885673
14 0 3.6049409999999997 3.217345 2.7710339999999993 -0.002637284063863164 2.307854598528166 2.5077160439826094
15 0 1.244318 0.26405 0.128378 0.0026393015096846835 -2.307865276671944 2.507723715616012
16 0 1.244318 3.7454440000000004 2.7710339999999993 0.0026406164889604946 -2.3078552459336854 2.507718581710045
Energy
11.906954738709874
PlusStress: xx yy zz yz xz xy
32.72376235872275 53.3893444231037 9.170444331428936 -6.035328538289651e-06 4.986633793149021e-06 -1.030770947747632e-06
END_CFG
BEGIN_CFG
Size
16
Supercell
8.041451 0.0 0.0
0.0 8.041451 0.0
0.0 0.0 8.041451
AtomData: id type cartes_x cartes_y cartes_z fx fy fz
1 0 2.072478 2.072478 2.072478 -4.561913613451735 -4.561913613451732 -4.561913613451734
2 0 5.968972 5.968972 2.072478 4.561926256859333 4.561926256859333 -4.561916860440078
3 0 5.968972 2.072478 5.968972 4.561926256859322 -4.561916860440076 4.56192625685933
4 0 2.072478 5.968972 5.968972 -4.561916860440072 4.561926256859327 4.561926256859329
5 0 2.42867 2.42867 4.082736 -1.7884543886373472 -1.7884543886373465 1.8073445872921226
6 0 5.61278 5.61278 4.082736 1.7884601290898734 1.7884601290898698 1.8073390453584377
7 0 5.61278 2.42867 3.958715 1.7884559830535487 -1.7884491059862135 -1.8073654537585664
8 0 2.42867 5.61278 3.958715 -1.7884491059862095 1.788455983053552 -1.807365453758569
9 0 4.082736 2.42867 2.42867 1.8073445872921294 -1.7884543886373465 -1.7884543886373467
10 0 4.082736 5.61278 5.61278 1.8073390453584366 1.7884601290898703 1.788460129089872
11 0 3.958715 5.61278 2.42867 -1.8073654537585673 1.7884559830535487 -1.788449105986212
12 0 3.958715 2.42867 5.61278 -1.807365453758565 -1.7884491059862173 1.7884559830535498
13 0 2.42867 4.082736 2.42867 -1.7884543886373427 1.807344587292128 -1.7884543886373423
14 0 5.61278 4.082736 5.61278 1.788460129089868 1.807339045358435 1.7884601290898732
15 0 2.42867 3.958715 5.61278 -1.7884491059862127 -1.8073654537585686 1.7884559830535498
16 0 5.61278 3.958715 2.42867 1.7884559830535482 -1.8073654537585664 -1.7884491059862129
Energy
29.607599504089904
PlusStress: xx yy zz yz xz xy
55.57235254162239 55.57235254162244 55.57235254162267 -2.2935193717214114e-07 -2.2935193762965521e-07 -2.2935193555667993e-07
END_CFG
BEGIN_CFG
Size
16
Supercell
6.938626 0.0 0.0
0.0 6.938626 0.0
0.0 0.0 6.938626
AtomData: id type cartes_x cartes_y cartes_z fx fy fz
1 0 0.0 0.0 0.0 7.347554604741902e-06 7.3475546065182584e-06 7.347554604075768e-06
2 0 3.4693129999999988 3.4693129999999988 0.0 3.1280936034589965e-06 3.1280935990183212e-06 -1.0913674200406205e-06
3 0 3.4693129999999988 0.0 3.4693129999999988 3.1280936055588793e-06 -1.0913674217752356e-06 3.12809360680788e-06
4 0 0.0 3.4693129999999988 3.4693129999999988 -1.091367418222522e-06 3.128093601117987e-06 3.128093606363791e-06
5 0 3.298866999999999 1.7346569999999997 1.7346569999999997 6.078912793269297 -2.6543575716575507e-06 -2.6543575716853063e-06
6 0 0.17044599999999996 1.7346569999999997 1.7346569999999997 -6.078899916362657 -6.912189394941981e-06 -6.912189394872592e-06
7 0 1.7346569999999997 3.298866999999999 1.7346569999999997 -2.6543575742110637e-06 6.0789127932692955 -2.6543575752102644e-06
8 0 1.7346569999999997 0.17044599999999996 1.7346569999999997 -6.9121893938040024e-06 -6.078899916362666 -6.912189393096235e-06
9 0 1.7346569999999997 1.7346569999999997 3.298866999999999 -2.654357574221472e-06 -2.654357574245758e-06 6.078912793269287
10 0 1.7346569999999997 1.7346569999999997 0.17044599999999996 -6.9121893939289025e-06 -6.912189393925433e-06 -6.078899916362662
11 0 5.203969999999998 6.768179999999998 5.203969999999998 -6.9121978387990854e-06 6.078912793268376 -6.91219784064494e-06
12 0 5.203969999999998 3.639759 5.203969999999998 -2.654348070829624e-06 -6.078899916363633 -2.6543480710794514e-06
13 0 6.768179999999998 5.203969999999998 5.203969999999998 6.078912793268367 -6.912197839575862e-06 -6.912197838868583e-06
14 0 3.639759 5.203969999999998 5.203969999999998 -6.078899916363642 -2.654348072131385e-06 -2.6543480714680295e-06
15 0 5.203969999999998 5.203969999999998 3.639759 -2.6543480718538293e-06 -2.6543480719093404e-06 -6.078899916363637
16 0 5.203969999999998 5.203969999999998 6.768179999999998 -6.912197838854217e-06 -6.9121978379591e-06 6.078912793268362
Energy
21.812942941956234
PlusStress: xx yy zz yz xz xy
45.76208417750699 45.76208417750712 45.76208417750695 -1.332085093272428e-11 -1.3319192537081248e-11 -1.3319206848549925e-11
END_CFG
BEGIN_CFG
Size
16
Supercell
5.775641 0.0 0.0
0.0 5.775641 0.0
0.0 0.0 5.775641
AtomData: id type cartes_x cartes_y cartes_z fx fy fz
1 0 0.721955 0.721955 0.721955 -4.1668789106663606e-07 -4.1668788981763516e-07 -4.166878979638966e-07
2 0 2.1658649999999997 5.053686 3.6097749999999995 8.780015523082718e-06 -3.7132228660344616e-06 2.91788832675402e-06
3 0 5.053686 3.6097749999999995 2.1658649999999997 -3.7132228669911616e-06 2.9178883248076604e-06 8.78001552306884e-06
4 0 3.6097749999999995 2.1658649999999997 5.053686 2.9178883254460386e-06 8.780015520043483e-06 -3.7132228661428818e-06
5 0 0.721955 2.261999 4.957552 -9.865595684312167e-07 -0.9624339326022714 0.9624202510125078
6 0 2.1658649999999997 3.513642 2.069732 -1.418729968097679e-06 0.96242819108212 0.9624292276124906
7 0 5.053686 5.149819 3.705909 2.0424655028241723e-06 -0.9624323287828092 -0.9624312835000345
8 0 3.6097749999999995 0.625822 0.818088 3.7810804058846514e-06 0.9624272102698811 -0.9624183213413143
9 0 4.957552 0.721955 2.261999 0.962420251012487 -9.86559571911072e-07 -0.9624339326022885
10 0 2.069732 2.1658649999999997 3.513642 0.9624292276124846 -1.4187299645623125e-06 0.9624281910821106
11 0 3.705909 5.053686 5.149819 -0.9624312835000318 2.0424655105023837e-06 -0.9624323287828019
12 0 0.818088 3.6097749999999995 0.625822 -0.9624183213413167 3.781080381515256e-06 0.9624272102698717
13 0 2.261999 4.957552 0.721955 -0.9624339326022826 0.9624202510124905 -9.865595663113846e-07
14 0 3.513642 2.069732 2.1658649999999997 0.9624281910821108 0.9624292276124875 -1.4187299676171605e-06
15 0 5.149819 3.705909 5.053686 -0.9624323287827896 -0.9624312835000273 2.042465510217889e-06
16 0 0.625822 0.818088 3.6097749999999995 0.9624272102698782 -0.9624183213413209 3.7810804026164324e-06
Energy
30.795202744969814
PlusStress: xx yy zz yz xz xy
51.071622583943636 51.071622583942855 51.07162258394414 -1.7621978867701088e-05 -1.7621978908699543e-05 -1.762197889086832e-05
END_CFG
BEGIN_CFG
Size
16
Supercell
6.604537 0.0 0.0
0.0 6.604537 0.0
0.0 0.0 6.604537
AtomData: id type cartes_x cartes_y cartes_z fx fy fz
1 0 0.0 0.0 0.0 -6.240115495972833e-07 -6.240115497718399e-07 -6.24011550513651e-07
2 0 3.302268 3.302268 3.302268 2.7526424628381008e-08 2.75264243542947e-08 2.7526425326824047e-08
3 0 0.0 3.302268 3.302268 -6.24012562733256e-07 2.752636740765979e-08 2.752636651948137e-08
4 0 3.302268 0.0 0.0 2.752631032484909e-08 -6.240120547906097e-07 -6.240120543467374e-07
5 0 3.302268 0.0 3.302268 2.7526367275820807e-08 -6.24012563502389e-07 2.7526367565085946e-08
6 0 0.0 3.302268 0.0 -6.240120532488742e-07 2.752631079365811e-08 -6.240120552320969e-07
7 0 3.302268 3.302268 0.0 2.7526367685215547e-08 2.7526367459267814e-08 -6.240125646473065e-07
8 0 0.0 0.0 3.302268 -6.240120541736987e-07 -6.240120537879396e-07 2.7526311201101286e-08
9 0 1.6511340000000003 1.6511340000000003 1.6511340000000003 -2.752642425107865e-08 -2.7526424167811925e-08 -2.7526424316998144e-08
10 0 4.953402 4.953402 4.953402 6.240115438668047e-07 6.240115483079137e-07 6.240115471979075e-07
11 0 4.953402 4.953402 1.6511340000000003 6.240120516559644e-07 6.240120547645889e-07 -2.752631225039215e-08
12 0 1.6511340000000003 1.6511340000000003 4.953402 -2.7526368153590886e-08 -2.7526369406061235e-08 6.240125684890685e-07
13 0 4.953402 1.6511340000000003 4.953402 6.240120537202853e-07 -2.7526311011799587e-08 6.240120547791849e-07
14 0 1.6511340000000003 4.953402 1.6511340000000003 -2.7526368098079734e-08 6.240125671984342e-07 -2.7526368961972025e-08
15 0 1.6511340000000003 4.953402 4.953402 -2.7526311786936378e-08 6.240120558276542e-07 6.240120561327487e-07
16 0 4.953402 1.6511340000000003 1.6511340000000003 6.240125679827461e-07 -2.7526368085069308e-08 -2.7526367639245375e-08
Energy
1.068666419848495
PlusStress: xx yy zz yz xz xy
-7.499389262792984 -7.4993892627930805 -7.499389262793315 -4.318330415475913e-12 -4.315056124915007e-12 -4.308756476611997e-12
END_CFG
BEGIN_CFG
Size
16
Supercell
5.436475 0.0 0.0
0.0 5.436475 0.0
0.0 0.0 7.138149
AtomData: id type cartes_x cartes_y cartes_z fx fy fz
1 0 4.955637 0.646282 3.023758 3.306859516046142 -1.5947326368030446 -7.941390281641094
2 0 3.199076 2.071955 3.023758 -3.3068687017880083 1.594745160641786 -7.941379034459924
3 0 2.071955 4.955637 3.023758 1.5947385738604727 3.3068661264903065 -7.941383769241807
4 0 0.646282 3.199076 3.023758 -1.5947392235971318 -3.306862091351098 -7.941385546846124
5 0 0.480838 3.36452 0.545316 -3.306869830061274 -1.594739041880595 7.9413911096623515
6 0 2.237399 4.790193 0.545316 3.306865794912236 1.5947396916198757 7.941392887268835
7 0 3.36452 2.237399 0.545316 -1.594745628675288 3.3068724053625087 7.941386374875652
8 0 4.790193 0.480838 0.545316 1.5947331048124271 -3.3068632196037537 7.941397622068629
9 0 0.480838 4.790193 4.114391 -3.306859516046136 1.5947326368030401 7.94139028164109
10 0 2.237399 3.36452 4.114391 3.3068687017880163 -1.594745160641793 7.941379034459927
11 0 3.36452 0.480838 4.114391 -1.5947385738604758 -3.3068661264902963 7.941383769241788
12 0 4.790193 2.237399 4.114391 1.5947392235971252 3.306862091351101 7.941385546846125
13 0 4.955637 2.071955 6.592833 3.306869830061284 1.5947390418805831 -7.941391109662344
14 0 3.199076 0.646282 6.592833 -3.306865794912222 -1.5947396916198786 -7.941392887268829
15 0 2.071955 3.199076 6.592833 1.5947456286752817 -3.306872405362511 -7.941386374875608
16 0 0.646282 4.955637 6.592833 -1.5947331048124422 3.3068632196037573 -7.941397622068629
Energy
36.603324148975695
PlusStress: xx yy zz yz xz xy
66.90331954882154 66.90331954882197 54.832905647701764 -7.510722585468325e-06 -7.51073615237372e-06 -2.5903245477396086e-12
END_CFG
BEGIN_CFG
Size
16
Supercell
7.373086 0.0 0.0
-3.686543 6.38528 0.0
0.0 0.0 4.048969
AtomData: id type cartes_x cartes_y cartes_z fx fy fz
1 0 -4.000000000115023e-06 4.256856000000001 1.012242 2.054916943715346e-05 -1.2334535896066368e-05 2.547292501584031e-07
2 0 3.686547 2.128425 3.036726 -1.575904997441757e-05 7.028826173094416e-06 1.1781458831294778e-06
3 0 0.0 0.0 0.0 1.4587921602408904e-05 3.2511076640132433e-06 -1.0767942416785303e-05
4 0 0.0 0.0 2.024484 1.4587924338282932e-05 3.251106306390028e-06 7.36917175059304e-06
5 0 4.325240999999998 4.464615 1.9864869999999994 2.0361969723329034 -5.297728689691555 1.405677889008564
6 0 1.3439959999999997 1.513461 1.9864869999999994 3.5698715661341116 4.41225807844403 1.4056793207688305
7 0 5.390393 0.407204 1.9864869999999994 -5.606068381889965 0.885463069454876 1.4056736795116587
8 0 -0.638698 1.920665 4.010971 -2.0361804512531667 5.297734362839968 1.4056750946608036
9 0 2.342548 4.871819 4.010971 -3.5698885647659475 -4.4122598355347025 1.4056753400212878
10 0 -1.7038490000000004 5.978076 4.010971 5.606051876472276 -0.8854675837706736 1.4056695710056981
11 0 -0.638698 1.920665 2.062482 -2.036180585125736 5.297734899473867 -1.4056775363437017
12 0 2.342548 4.871819 2.062482 -3.56988896256799 -4.4122602197907606 -1.405677781705506
13 0 -1.7038490000000004 5.978076 2.062482 5.606052408148488 -0.8854677361489497 -1.4056720126869293
14 0 4.325240999999998 4.464615 0.037998 2.0361961330484575 -5.297729487500294 -1.405674792026517
15 0 1.3439959999999997 1.513461 0.037998 3.5698726766867908 4.4122577505018485 -1.4056762237874092